<?xml version="1.0" encoding="UTF-8"?>

<!-- generated on 2022-04-20 14:29:26 by Eclipse SUMO GUI Version v1_10_0+1844-a95981ac25a
<configuration xmlns:xsi="http://www.w3.org/2001/XMLSchema-instance" xsi:noNamespaceSchemaLocation="http://sumo.dlr.de/xsd/sumoConfiguration.xsd">

    <input>
        <net-file value="ingolstadt_rtest.net.xml"/>
        <route-files value="routes.rou.xml"/>
        <additional-files value="buildings_reduced.poly.xml,enodeb_poi.add.xml"/>
    </input>

    <output>
        <summary-output value="InTAS.simulation.summary.xml"/>
        <tripinfo-output value="InTAS.simulation.tripinfo.xml"/>
        <statistic-output value="InTAS.simulation.statistic.xml"/>
    </output>

    <time>
        <begin value="0"/>
        <end value="250"/>
        <step-length value="0.1"/>
    </time>

    <processing>
        <threads value="1"/>
        <route-steps value="200"/>
        <ignore-junction-blocker value="15"/>
        <time-to-teleport value="300"/>
        <time-to-teleport.highways value="300"/>
        <max-depart-delay value="300"/>
        <default.carfollowmodel value="Krauss"/>
        <parking.maneuver value="true"/>
        <pedestrian.model value="striping"/>
        <pedestrian.striping.stripe-width value="0.55"/>
        <pedestrian.striping.jamtime value="30"/>
    </processing>

    <routing>
        <routing-algorithm value="dijkstra"/>
        <persontrip.transfer.car-walk value="allJunctions"/>
        <device.rerouting.probability value="0.82"/>
        <device.rerouting.explicit value="default_001,default_002,default_003,default_004,default_005,default_006,default_007,default_008,default_009,default_010,default_011,default_012,default_013,default_014,default_015,default_016,default_017,default_018,default_019,default_020,default_021,default_022,random_001,random_002,random_003,random_004,random_005,random_006,random_007,random_008,random_009,random_010,random_011,random_012,random_013,random_014,random_015,random_016,random_017,random_018,random_019,random_020,random_021,random_022"/>
        <device.rerouting.period value="300"/>
        <device.rerouting.threads value="1"/>
        <device.rerouting.synchronize value="true"/>
    </routing>

    <report>
        <verbose value="true"/>
        <no-warnings value="true"/>
        <log value="InTAS.simulation.log"/>
        <message-log value="sumo-0.log"/>
        <no-step-log value="true"/>
    </report>

    <traci_server>
        <remote-port value="39299"/>
    </traci_server>

    <random_number>
        <seed value="23423"/>
    </random_number>

    <gui_only>
        <quit-on-end value="true"/>
        <tracker-interval value="0.1"/>
    </gui_only>

</configuration>
-->

<tripinfos xmlns:xsi="http://www.w3.org/2001/XMLSchema-instance" xsi:noNamespaceSchemaLocation="http://sumo.dlr.de/xsd/tripinfo_file.xsd">
    <tripinfo id="1" depart="2.00" departLane="257907860#1.168_1" departPos="5.10" departSpeed="0.00" departDelay="0.00" arrival="20.00" arrivalLane="25902677#0_1" arrivalPos="99.17" arrivalSpeed="14.67" duration="18.00" routeLength="181.33" waitingTime="0.00" waitingCount="0" stopTime="0.00" timeLoss="4.98" rerouteNo="0" devices="tripinfo_1" vType="DEFAULT_VEHTYPE" speedFactor="1.06" vaporized=""/>
</tripinfos>
